20
	Energy:    1791.0494616
C         -0.48795        1.43697       -1.05558
C         -1.64650        0.67396       -0.93300
C         -1.28316       -0.66982       -0.97422
C          0.09994       -0.73730       -1.12227
C          0.59141        0.56476       -1.17255
C         -2.20112        0.93162        0.31818
C         -0.32656        2.16620        0.11984
C         -1.38535        1.85388        0.96887
C         -1.61322       -1.24266        0.25149
C         -2.18056       -0.25291        1.05023
C          1.41989        0.75494       -0.06942
C          0.85255        1.74468        0.72933
C          0.62469       -1.35185        0.01194
C          1.44046       -0.42959        0.66264
C         -0.43411       -1.66417        0.86097
C         -1.35208       -0.06274        2.15336
C         -0.86061        1.23933        2.10308
C         -0.27271       -0.93495        2.03639
C          0.52249        1.17184        1.95503
C          0.88583       -0.17193        1.91382
